 Gaussian 09, Revision D.01,
 Gaussian 09:  AS64L-G09RevD.01 24-Apr-2013

 ----------------------------------------------------------------------
 #P opt=(modredundant, calcfc, noeigentest, maxStep=5) scf=(tight, dire
 ct) integral=(grid=ultrafine, Acc2E=12) guess=read b3lyp/cbsb7 scf=xqc
  iop(2/9=2000)
 ----------------------------------------------------------------------

 ----
 name
 ----
 Symbolic Z-matrix:
 Charge =  0 Multiplicity = 1

 SCF Done:  E(RB3LYP) =  -115.757393382     A.U. after    9 cycles

  Exact polarizability:   0.000   0.000   0.000   0.000   0.000   0.000
 Approx polarizability:  22.131  -0.805  22.582   0.000   0.000  18.732

 Optimization completed.
    -- Stationary point found.
 SCF Done:  E(RB3LYP) =  -115.756686363     A.U. after   10 cycles
 SCF Done:  E(RB3LYP) =  -115.757186522     A.U. after    9 cycles
 SCF Done:  E(RB3LYP) =  -115.757307341     A.U. after    9 cycles
 Optimization completed.
 SCF Done:  E(RB3LYP) =  -115.756431297     A.U. after   10 cycles
 SCF Done:  E(RB3LYP) =  -115.757061768     A.U. after   10 cycles
 SCF Done:  E(RB3LYP) =  -115.756043413     A.U. after   10 cycles
 SCF Done:  E(RB3LYP) =  -115.756695578     A.U. after    9 cycles
 SCF Done:  E(RB3LYP) =  -115.756696561     A.U. after    7 cycles
 SCF Done:  E(RB3LYP) =  -115.755584048     A.U. after   10 cycles
 SCF Done:  E(RB3LYP) =  -115.756268725     A.U. after    9 cycles
 SCF Done:  E(RB3LYP) =  -115.756269390     A.U. after    7 cycles
 SCF Done:  E(RB3LYP) =  -115.755992039     A.U. after    9 cycles
 SCF Done:  E(RB3LYP) =  -115.756696367     A.U. after   10 cycles
 SCF Done:  E(RB3LYP) =  -115.756395901     A.U. after    9 cycles
 SCF Done:  E(RB3LYP) =  -115.757062165     A.U. after   10 cycles
 SCF Done:  E(RB3LYP) =  -115.756668112     A.U. after   10 cycles
 SCF Done:  E(RB3LYP) =  -115.757307133     A.U. after   10 cycles
    -- Stationary point found.
 SCF Done:  E(RB3LYP) =  -115.756769522     A.U. after   10 cycles
 SCF Done:  E(RB3LYP) =  -115.757393132     A.U. after   10 cycles
 Optimization completed.
    -- Stationary point found.

                         Standard orientation:
 ---------------------------------------------------------------------
 Center     Atomic      Atomic             Coordinates (Angstroms)
 Number     Number       Type             X           Y           Z
 ---------------------------------------------------------------------
      1          6           0       -0.663512    0.019577   -0.000145
      2          8           0        0.750056   -0.121671   -0.000216
      3          1           0       -1.082157   -0.987697   -0.002152
      4          1           0       -1.035259    0.538942    0.893877
      5          1           0       -1.035219    0.544805   -0.890667
      6          1           0        1.133257    0.759854    0.001545
 ---------------------------------------------------------------------

 The electronic state is 1-A.
 Alpha  occ. eigenvalues --  -19.10795 -10.20955  -1.01502  -0.68232  -0.50625
 Alpha  occ. eigenvalues --   -0.43880  -0.42411  -0.33476  -0.27159
 Alpha virt. eigenvalues --    0.03739   0.07164   0.11336   0.11582   0.18085
 Alpha virt. eigenvalues --    0.30473   0.32389   0.39178   0.44917   0.51836
 Alpha virt. eigenvalues --    0.56977   0.57841   0.70605   0.78663   0.81060

 Mulliken charges:
               1
     1  C   -0.116094
     2  O   -0.405750
     3  H    0.110402
     4  H    0.087922
     5  H    0.088001
     6  H    0.235519
 Sum of Mulliken charges =   0.00000

 Dipole moment (field-independent basis, Debye):
    X=             -0.8000    Y=              1.5144    Z=              0.0030  Tot=              1.7127
 Quadrupole moment (field-independent basis, Debye-Ang):
   XX=            -12.7501   YY=            -12.1569   ZZ=            -13.6693
   XY=              2.2156   XZ=              0.0042   YZ=              0.0009

 Normal termination of Gaussian 09 at Tue Aug  6 15:26:57 2019.
