 Gaussian 09, Revision D.01,
 Gaussian 09:  AS64L-G09RevD.01 24-Apr-2013

 ----------------------------------------------------------------------
 #P opt=(ts, calcfc, noeigentest, tight) guess=mix cbs-qb3 scf=(tight,
 direct) integral=(grid=ultrafine, Acc2E=12) scf=xqc iop(2/9=2000)
 ----------------------------------------------------------------------

 ---
 nBA
 ---
 Symbolic Z-matrix:
 Charge =  0 Multiplicity = 1

 SCF Done:  E(RB3LYP) =  -386.367844849     A.U. after   17 cycles
 SCF Done:  E(RB3LYP) =  -386.367876588     A.U. after   10 cycles
 SCF Done:  E(RB3LYP) =  -386.367876739     A.U. after    8 cycles
 SCF Done:  E(RB3LYP) =  -386.367876741     A.U. after    6 cycles
 SCF Done:  E(RB3LYP) =  -386.367876740     A.U. after    5 cycles
 SCF Done:  E(RB3LYP) =  -386.367876740     A.U. after    4 cycles
 Optimization completed.
    -- Stationary point found.
 Normal termination of Gaussian 09 at Fri Nov 15 11:57:04 2019.

 --------------------------------------------------------------
 #P Geom=AllCheck Guess=TCheck SCRF=Check Test B3LYP/CBSB7 Freq
 --------------------------------------------------------------

 Structure from the checkpoint file:  "check.chk"
 ---
 nBA
 ---
 Charge =  0 Multiplicity = 1

 SCF Done:  E(RB3LYP) =  -386.367876740     A.U. after    1 cycles

  Exact polarizability: 109.780  -2.450  75.269  -4.694  -1.762  63.524
 Approx polarizability: 129.319  -1.223 127.856  -8.600 -12.803  95.051

 ******    1 imaginary frequencies (negative Signs) ******

                      1                      2                      3
                      A                      A                      A
 Frequencies --  -1357.1836                24.2815                45.0071
 Red. masses --      1.3749                 2.5902                 1.1681
 Frc consts  --      1.4921                 0.0009                 0.0014
 IR Inten    --    934.1919                 3.1382                 0.1541

                      4                      5                      6
                      A                      A                      A
 Frequencies --     67.4155               109.7355               130.5751
 Red. masses --      2.2004                 3.9628                 3.7975
 Frc consts  --      0.0059                 0.0281                 0.0381
 IR Inten    --      0.4116                 0.8423                 5.2881

                      7                      8                      9
                      A                      A                      A
 Frequencies --    239.1821               259.7011               330.2112
 Red. masses --      1.1559                 3.0807                 2.7939
 Frc consts  --      0.0390                 0.1224                 0.1795
 IR Inten    --      2.0206                31.7776                38.7979

                     10                     11                     12
                      A                      A                      A
 Frequencies --    392.1131               423.7618               493.5106
 Red. masses --      2.7111                 2.4117                 3.1852
 Frc consts  --      0.2456                 0.2552                 0.4571
 IR Inten    --    129.6818                55.8586                 1.5105

                     13                     14                     15
                      A                      A                      A
 Frequencies --    599.5077               614.8087               690.8275
 Red. masses --      2.6605                 3.5018                 3.7578
 Frc consts  --      0.5634                 0.7799                 1.0566
 IR Inten    --     30.5447                84.4282                11.8523

                     16                     17                     18
                      A                      A                      A
 Frequencies --    780.1354               822.2367               839.3487
 Red. masses --      1.1697                 1.9905                 1.2894
 Frc consts  --      0.4194                 0.7929                 0.5352
 IR Inten    --      1.9089                29.7842                 7.9349

                     19                     20                     21
                      A                      A                      A
 Frequencies --    898.7565               935.3146              1011.8711
 Red. masses --      1.3313                 5.4556                 1.5263
 Frc consts  --      0.6336                 2.8120                 0.9207
 IR Inten    --     10.5535                 3.2745                 8.6002

                     22                     23                     24
                      A                      A                      A
 Frequencies --   1022.2481              1024.8513              1064.7204
 Red. masses --      1.4988                 1.5249                 1.8798
 Frc consts  --      0.9228                 0.9436                 1.2556
 IR Inten    --      8.8805                 8.8222                 5.9910

                     25                     26                     27
                      A                      A                      A
 Frequencies --   1085.9349              1129.4633              1184.4273
 Red. masses --      1.6045                 1.2534                 1.7837
 Frc consts  --      1.1148                 0.9421                 1.4743
 IR Inten    --     11.2436                52.3664                23.6867

                     28                     29                     30
                      A                      A                      A
 Frequencies --   1253.1838              1287.4167              1335.1218
 Red. masses --      1.4796                 1.1740                 1.1202
 Frc consts  --      1.3691                 1.1464                 1.1765
 IR Inten    --    177.6791                 3.4955                25.7890

                     31                     32                     33
                      A                      A                      A
 Frequencies --   1368.0301              1371.6443              1409.6850
 Red. masses --      1.2904                 1.3530                 1.2738
 Frc consts  --      1.4228                 1.4998                 1.4914
 IR Inten    --      1.6925                 4.2919                 1.7664

                     34                     35                     36
                      A                      A                      A
 Frequencies --   1421.2289              1439.3265              1466.5732
 Red. masses --      1.4300                 2.2822                 1.1547
 Frc consts  --      1.7018                 2.7856                 1.4633
 IR Inten    --     16.8131               267.1108                53.6288

                     37                     38                     39
                      A                      A                      A
 Frequencies --   1476.0886              1487.0885              1498.5190
 Red. masses --      1.0975                 1.0744                 1.0451
 Frc consts  --      1.4090                 1.3999                 1.3827
 IR Inten    --     25.0524                14.6211                13.2304

                     40                     41                     42
                      A                      A                      A
 Frequencies --   1504.7737              1513.3231              1559.6539
 Red. masses --      1.0867                 1.2738                 1.7126
 Frc consts  --      1.4498                 1.7187                 2.4545
 IR Inten    --     18.2634                79.0424                17.7878

                     43                     44                     45
                      A                      A                      A
 Frequencies --   1671.4494              3016.5438              3017.4085
 Red. masses --      4.3338                 1.0510                 1.0447
 Frc consts  --      7.1335                 5.6349                 5.6039
 IR Inten    --    557.9911                15.5004                42.2302

                     46                     47                     48
                      A                      A                      A
 Frequencies --   3042.5779              3043.4487              3077.9556
 Red. masses --      1.0357                 1.1003                 1.0890
 Frc consts  --      5.6489                 6.0046                 6.0787
 IR Inten    --      3.1043                 7.8782                 3.4308

                     49                     50                     51
                      A                      A                      A
 Frequencies --   3082.3949              3084.4623              3108.8110
 Red. masses --      1.1016                 1.0987                 1.0987
 Frc consts  --      6.1664                 6.1588                 6.2561
 IR Inten    --     49.9480                60.0857                 8.6599

                     52                     53                     54
                      A                      A                      A
 Frequencies --   3142.1658              3149.7346              3240.4540
 Red. masses --      1.1044                 1.0593                 1.1178
 Frc consts  --      6.4242                 6.1916                 6.9157
 IR Inten    --      9.4522                 9.3016                 4.7851

 - Thermochemistry -
 -------------------
 Temperature   298.150 Kelvin.  Pressure   1.00000 Atm.
 Atom     1 has atomic number  6 and mass  12.00000

 Molecular mass:   116.08373 amu.
 Principal axes and moments of inertia in atomic units:
                           1         2         3
     Eigenvalues --   381.156722003.244202183.12143
           X            0.99999  -0.00155  -0.00280
           Y            0.00167   0.99918   0.04036
           Z            0.00274  -0.04036   0.99918
 This molecule is an asymmetric top.
 Rotational symmetry number  1.
 Rotational temperatures (Kelvin)      0.22724     0.04324     0.03967
 Rotational constants (GHZ):           4.73491     0.90091     0.82668
    1 imaginary frequencies ignored.
 Zero-point vibrational energy     438365.6 (Joules/Mol)
                                  104.77190 (Kcal/Mol)
 Warning -- explicit consideration of  13 degrees of freedom as
           vibrations may cause significant error
 Vibrational temperatures:     34.94    64.76    97.00   157.88   187.87
          (Kelvin)            344.13   373.65   475.10   564.16   609.70
                              710.05   862.56   884.57   993.95  1122.44
                             1183.01  1207.63  1293.11  1345.71  1455.86
                             1470.79  1474.53  1531.89  1562.42  1625.04
                             1704.12  1803.05  1852.30  1920.94  1968.29
                             1973.49  2028.22  2044.83  2070.87  2110.07
                             2123.76  2139.59  2156.03  2165.03  2177.33
                             2243.99  2404.84  4340.13  4341.37  4377.59
                             4378.84  4428.49  4434.87  4437.85  4472.88
                             4520.87  4531.76  4662.28

 Zero-point correction=                           0.166965 (Hartree/Particle)
 Thermal correction to Energy=                    0.176978
 Thermal correction to Enthalpy=                  0.177922
 Thermal correction to Gibbs Free Energy=         0.130000
 Sum of electronic and zero-point Energies=           -386.200912
 Sum of electronic and thermal Energies=              -386.190899
 Sum of electronic and thermal Enthalpies=            -386.189955
 Sum of electronic and thermal Free Energies=         -386.237877

                     E (Thermal)             CV                S
                      KCal/Mol        Cal/Mol-Kelvin    Cal/Mol-Kelvin
 Total                  111.055             34.492            100.861
 Electronic               0.000              0.000              0.000
 Translational            0.889              2.981             40.163
 Rotational               0.889              2.981             28.901
 Vibrational            109.278             28.530             31.797
 Vibration     1          0.593              1.985              6.249
 Vibration     2          0.595              1.979              5.026
 Vibration     3          0.598              1.970              4.227
 Vibration     4          0.606              1.941              3.274
 Vibration     5          0.612              1.923              2.938
 Vibration     6          0.657              1.781              1.809
 Vibration     7          0.668              1.746              1.664
 Vibration     8          0.713              1.615              1.259
 Vibration     9          0.760              1.487              0.992
 Vibration    10          0.786              1.419              0.879
 Vibration    11          0.849              1.264              0.675
 Vibration    12          0.958              1.033              0.451
 Vibration    13          0.974              1.001              0.425

 Optimization completed.
    -- Stationary point found.
 Normal termination of Gaussian 09 at Fri Nov 15 12:05:13 2019.

 ----------------------------------------------------------------
 #P Geom=AllCheck Guess=TCheck SCRF=Check Test CCSD(T)/6-31+G(d')
 ----------------------------------------------------------------

 Structure from the checkpoint file:  "check.chk"
 ---
 nBA
 ---
 Charge =  0 Multiplicity = 1

 SCF Done:  E(RHF) =  -383.836267753     A.U. after   15 cycles
 E2 =    -0.1185363075D+01 EUMP2 =    -0.38502163082879D+03
 CCSD(T)
 CCSD(T)= -0.38513217802D+03
 954\MP4DQ=-385.0684958\MP4SDQ=-385.0876764\CCSD=-385.0862223\CCSD(T)=-
 Normal termination of Gaussian 09 at Fri Nov 15 16:24:37 2019.

 ----------------------------------------------------------
 #P Geom=AllCheck Guess=TCheck SCRF=Check Test MP4SDQ/CBSB4
 ----------------------------------------------------------

 Structure from the checkpoint file:  "check.chk"
 ---
 nBA
 ---
 Charge =  0 Multiplicity = 1

 SCF Done:  E(RHF) =  -383.857114409     A.U. after   12 cycles
 E2 =    -0.1262875395D+01 EUMP2 =    -0.38511998980410D+03
 Normal termination of Gaussian 09 at Fri Nov 15 16:38:56 2019.

 ----------------------------------------------------------------------
 #P Geom=AllCheck Guess=TCheck SCRF=Check Test MP2/CBSB3 CBSExtrap=(NMi
 n=10,MinPop)
 ----------------------------------------------------------------------

 Structure from the checkpoint file:  "check.chk"
 ---
 nBA
 ---
 Charge =  0 Multiplicity = 1

                         Standard orientation:
 ---------------------------------------------------------------------
 Center     Atomic      Atomic             Coordinates (Angstroms)
 Number     Number       Type             X           Y           Z
 ---------------------------------------------------------------------
      1          6           0       -3.513463   -0.214965   -0.355384
      2          6           0       -2.054689   -0.689928   -0.311191
      3          6           0       -1.171525    0.126171    0.627947
      4          6           0       -0.583913    1.322614    0.186349
      5          8           0        1.375372    1.065851   -0.208339
      6          6           0        1.838730   -0.086320    0.026443
      7          8           0        1.196280   -1.003171    0.628779
      8          6           0        3.238549   -0.405117   -0.451715
      9          1           0       -1.626384   -0.657815   -1.319769
     10          1           0       -2.027644   -1.742210   -0.009143
     11          1           0       -0.038732   -0.513987    0.715911
     12          1           0       -1.472457    0.124541    1.677775
     13          1           0       -0.676687    1.649585   -0.842428
     14          1           0       -0.306660    2.098582    0.887087
     15          1           0       -3.582321    0.818358   -0.709252
     16          1           0       -4.115398   -0.839707   -1.021863
     17          1           0       -3.968731   -0.253716    0.638890
     18          1           0        3.175289   -1.092244   -1.300079
     19          1           0        3.755340    0.503284   -0.758985
     20          1           0        3.789038   -0.910844    0.343636
 ---------------------------------------------------------------------

 SCF Done:  E(RHF) =  -383.965607451     A.U. after   12 cycles
 E2 =    -0.1493407475D+01 EUMP2 =    -0.38545901492648D+03
 E2(CBS)=      -1.638584 CBS-Int=       0.048717 OIii=      12.722051

 The electronic state is 1-A.
 Alpha  occ. eigenvalues --  -20.53490 -20.52848 -11.36159 -11.32805 -11.22841
 Alpha  occ. eigenvalues --  -11.21975 -11.21619 -11.20654  -1.41482  -1.30630
 Alpha  occ. eigenvalues --   -1.09683  -1.00830  -0.98587  -0.87696  -0.79612
 Alpha  occ. eigenvalues --   -0.75302  -0.67546  -0.66246  -0.64484  -0.62182
 Alpha  occ. eigenvalues --   -0.61184  -0.59029  -0.56095  -0.55284  -0.54606
 Alpha  occ. eigenvalues --   -0.52676  -0.50475  -0.48834  -0.48078  -0.45349
 Alpha  occ. eigenvalues --   -0.43684  -0.34607
 Alpha virt. eigenvalues --    0.03734   0.04983   0.05176   0.05575   0.06753
 Alpha virt. eigenvalues --    0.07452   0.08009   0.08183   0.08285   0.09679
 Alpha virt. eigenvalues --    0.10262   0.10460   0.11403   0.13983   0.14377

 Mulliken charges:
               1
     1  C   -0.456141
     2  C    0.279158
     3  C   -0.208833
     4  C   -0.311993
     5  O   -0.456798
     6  C    0.515398
     7  O   -0.552739
     8  C   -0.324956
     9  H    0.051957
    10  H    0.050553
    11  H    0.554719
    12  H    0.121281
    13  H    0.170525
    14  H    0.155300
    15  H    0.047612
    16  H    0.066180
    17  H    0.062552
    18  H    0.076947
    19  H    0.076078
    20  H    0.083199
 Sum of Mulliken charges =   0.00000

 Dipole moment (field-independent basis, Debye):
    X=             -1.4495    Y=              1.3707    Z=             -0.5208  Tot=              2.0618
 Quadrupole moment (field-independent basis, Debye-Ang):
   XX=            -47.8672   YY=            -51.9374   ZZ=            -49.8711
   XY=             -1.9713   XZ=             -1.3187   YZ=              2.7153

    1 imaginary frequencies ignored.

 1\1\GINC-NODE059\Mixed\CBS-QB3\CBS-QB3\C6H12O2\XIAORUI\15-Nov-2019\0\\
 #P opt=(ts, calcfc, noeigentest, tight) guess=mix cbs-qb3 scf=(tight,
 direct) integral=(grid=ultrafine, Acc2E=12) scf=xqc iop(2/9=2000)\\nBA
 \\0,1\C,0,-0.0100257068,0.0375581983,0.0020271248\C,0,0.0022740786,-0.
 0331805972,1.5351316882\C,0,1.4035895287,-0.028660689,2.1386820646\C,0
 ,2.1292214055,-1.2253554768,2.2533738449\O,0,2.1330822088,-1.891759698
 9,4.1550554745\C,0,1.5458807023,-1.1559532902,4.9983257913\O,0,1.11567
 89864,0.0133805792,4.7458369264\C,0,1.3235612389,-1.7022759825,6.39183

 Normal termination of Gaussian 09 at Fri Nov 15 16:56:29 2019.
