 Gaussian 09, Revision D.01,
 Gaussian 09:  AS64L-G09RevD.01 24-Apr-2013

 ----------------------------------------------------------------------
 #P opt=(calcfc, noeigentest, tight) guess=mix cbs-qb3 scf=(tight, dire
 ct) integral=(grid=ultrafine, Acc2E=12) scf=xqc iop(2/9=2000)
 ----------------------------------------------------------------------

 ----
 name
 ----
 Symbolic Z-matrix:
 Charge =  0 Multiplicity = 2

 SCF Done:  E(UB3LYP) =  -268.976866305     A.U. after   30 cycles
 SCF Done:  E(UB3LYP) =  -268.977407663     A.U. after   16 cycles
 SCF Done:  E(UB3LYP) =  -268.977409415     A.U. after   14 cycles
 SCF Done:  E(UB3LYP) =  -268.977409428     A.U. after   12 cycles
 Optimization completed.
    -- Stationary point found.
 Normal termination of Gaussian 09 at Sat Aug  1 02:46:20 2020.

 --------------------------------------------------------------
 #P Geom=AllCheck Guess=TCheck SCRF=Check Test B3LYP/CBSB7 Freq
 --------------------------------------------------------------

 Structure from the checkpoint file:  "check.chk"
 ----
 name
 ----
 Charge =  0 Multiplicity = 2

 SCF Done:  E(UB3LYP) =  -268.977409428     A.U. after    1 cycles

  Exact polarizability:  46.437   0.396  44.516  -0.855   0.741  37.928
 Approx polarizability:  55.484   0.893  64.608   0.819   2.734  52.570

                      1                      2                      3
                      A                      A                      A
 Frequencies --    117.4880               194.5163               299.8995
 Red. masses --      2.5082                 4.7868                 1.9813
 Frc consts  --      0.0204                 0.1067                 0.1050
 IR Inten    --      1.3651                 4.2120                 0.7421

                      4                      5                      6
                      A                      A                      A
 Frequencies --    383.3657               501.7110               518.8356
 Red. masses --      3.7349                 1.2432                 1.5164
 Frc consts  --      0.3234                 0.1844                 0.2405
 IR Inten    --      4.5052               145.7842                24.3174

                      7                      8                      9
                      A                      A                      A
 Frequencies --    730.9153               811.1599               920.4266
 Red. masses --      1.7079                 2.9702                 2.1354
 Frc consts  --      0.5376                 1.1515                 1.0659
 IR Inten    --     10.6427                 4.4032                 3.3093

                     10                     11                     12
                      A                      A                      A
 Frequencies --    952.3146              1014.9107              1061.4318
 Red. masses --      2.1268                 1.4738                 2.8519
 Frc consts  --      1.1364                 0.8944                 1.8931
 IR Inten    --     10.9522                 6.5096                40.4381

                     13                     14                     15
                      A                      A                      A
 Frequencies --   1091.5741              1165.7493              1203.1413
 Red. masses --      3.7822                 1.3013                 1.2360
 Frc consts  --      2.6552                 1.0419                 1.0541
 IR Inten    --     50.3387                 3.3899                44.2596

                     16                     17                     18
                      A                      A                      A
 Frequencies --   1253.6480              1304.9228              1364.5320
 Red. masses --      1.1345                 1.3388                 1.1014
 Frc consts  --      1.0505                 1.3432                 1.2082
 IR Inten    --      6.3783                 2.9265                21.1096

                     19                     20                     21
                      A                      A                      A
 Frequencies --   1378.4150              1399.3823              1453.2763
 Red. masses --      1.3530                 1.2962                 1.2003
 Frc consts  --      1.5147                 1.4956                 1.4936
 IR Inten    --      2.4221                 0.8974                58.6401

                     22                     23                     24
                      A                      A                      A
 Frequencies --   1470.3334              1514.4926              2841.0818
 Red. masses --      1.1129                 1.0845                 1.0683
 Frc consts  --      1.4176                 1.4656                 5.0807
 IR Inten    --     24.5252                 0.4309                15.2786

                     25                     26                     27
                      A                      A                      A
 Frequencies --   2941.0272              2944.4895              3022.1773
 Red. masses --      1.0768                 1.0737                 1.0618
 Frc consts  --      5.4876                 5.4847                 5.7140
 IR Inten    --     24.5539                81.3458                21.1117

                     28                     29                     30
                      A                      A                      A
 Frequencies --   3067.0733              3072.5007              3770.7690
 Red. masses --      1.1012                 1.0899                 1.0657
 Frc consts  --      6.1031                 6.0623                 8.9275
 IR Inten    --     28.7430                38.9903                84.0166

 - Thermochemistry -
 -------------------
 Temperature   298.150 Kelvin.  Pressure   1.00000 Atm.
 Atom     1 has atomic number  8 and mass  15.99491

 Molecular mass:    75.04460 amu.
 Principal axes and moments of inertia in atomic units:
                           1         2         3
     Eigenvalues --   225.58279 453.50335 616.00921
           X            0.99985   0.01634  -0.00635
           Y           -0.01638   0.99985  -0.00609
           Z            0.00625   0.00619   0.99996
 This molecule is an asymmetric top.
 Rotational symmetry number  1.
 Rotational temperatures (Kelvin)      0.38396     0.19099     0.14060
 Rotational constants (GHZ):           8.00035     3.97955     2.92973
 Zero-point vibrational energy     261776.2 (Joules/Mol)
                                   62.56601 (Kcal/Mol)
 Warning -- explicit consideration of   6 degrees of freedom as
           vibrations may cause significant error
 Vibrational temperatures:    169.04   279.87   431.49   551.58   721.85
          (Kelvin)            746.49  1051.62  1167.08  1324.29  1370.17
                             1460.23  1527.16  1570.53  1677.25  1731.05
                             1803.72  1877.49  1963.25  1983.23  2013.40
                             2090.94  2115.48  2179.01  4087.68  4231.48
                             4236.46  4348.23  4412.83  4420.64  5425.29

 Zero-point correction=                           0.099705 (Hartree/Particle)
 Thermal correction to Energy=                    0.105449
 Thermal correction to Enthalpy=                  0.106393
 Thermal correction to Gibbs Free Energy=         0.070233
 Sum of electronic and zero-point Energies=           -268.877704
 Sum of electronic and thermal Energies=              -268.871960
 Sum of electronic and thermal Enthalpies=            -268.871016
 Sum of electronic and thermal Free Energies=         -268.907176

                     E (Thermal)             CV                S
                      KCal/Mol        Cal/Mol-Kelvin    Cal/Mol-Kelvin
 Total                   66.170             19.982             76.105
 Electronic               0.000              0.000              1.377
 Translational            0.889              2.981             38.862
 Rotational               0.889              2.981             25.647
 Vibrational             64.393             14.021             10.219
 Vibration     1          0.608              1.935              3.141
 Vibration     2          0.635              1.848              2.184
 Vibration     3          0.692              1.674              1.417
 Vibration     4          0.753              1.506              1.026
 Vibration     5          0.857              1.246              0.654
 Vibration     6          0.874              1.208              0.613

 Optimization completed.
    -- Stationary point found.
 Normal termination of Gaussian 09 at Sat Aug  1 02:51:07 2020.

 ----------------------------------------------------------------
 #P Geom=AllCheck Guess=TCheck SCRF=Check Test CCSD(T)/6-31+G(d')
 ----------------------------------------------------------------

 Structure from the checkpoint file:  "check.chk"
 ----
 name
 ----
 Charge =  0 Multiplicity = 2

 SCF Done:  E(UHF) =  -267.346203728     A.U. after   21 cycles
 E2 =    -0.7324212298D+00 EUMP2 =    -0.26807862495729D+03
 CCSD(T)
 CCSD(T)= -0.26815433435D+03
 -268.1187038\MP4SDQ=-268.1304555\CCSD=-268.1328112\CCSD(T)=-268.154334
 Normal termination of Gaussian 09 at Sat Aug  1 11:49:01 2020.

 ----------------------------------------------------------
 #P Geom=AllCheck Guess=TCheck SCRF=Check Test MP4SDQ/CBSB4
 ----------------------------------------------------------

 Structure from the checkpoint file:  "check.chk"
 ----
 name
 ----
 Charge =  0 Multiplicity = 2

 SCF Done:  E(UHF) =  -267.362838974     A.U. after   19 cycles
 E2 =    -0.7786992922D+00 EUMP2 =    -0.26814153826622D+03

 1\1\GINC-NODE063\SP\UMP4SDQ-FC\CBSB4\C3H7O2(2)\XIAORUI\01-Aug-2020\0\\
 #P Geom=AllCheck Guess=TCheck SCRF=Check Test MP4SDQ/CBSB4\\name\\0,2\
 O,0,1.8572292822,-1.1308311694,0.2770650289\C,0,1.3870198724,0.0975235
 374,-0.1089138586\C,0,0.0292909207,0.5058977904,0.4771138007\C,0,-0.05
 17573513,0.323273623,1.9950212357\O,0,-0.0971876441,-1.0410849001,2.38
 04640707\H,0,2.1748487049,0.7936322554,0.2598320986\H,0,1.4293017525,0
 .2021940369,-1.2067491226\H,0,-0.7583937379,-0.094176931,0.0101413973\
 H,0,-0.1577828836,1.5533763387,0.2120281486\H,0,-0.9698385813,0.779250

 Normal termination of Gaussian 09 at Sat Aug  1 12:06:29 2020.

 ----------------------------------------------------------------------
 #P Geom=AllCheck Guess=TCheck SCRF=Check Test MP2/CBSB3 CBSExtrap=(NMi
 n=10,MinPop)
 ----------------------------------------------------------------------

 Structure from the checkpoint file:  "check.chk"
 ----
 name
 ----
 Charge =  0 Multiplicity = 2

                         Standard orientation:
 ---------------------------------------------------------------------
 Center     Atomic      Atomic             Coordinates (Angstroms)
 Number     Number       Type             X           Y           Z
 ---------------------------------------------------------------------
      1          8           0        1.342097   -1.044613    0.005710
      2          6           0        1.354577    0.322733    0.101318
      3          6           0        0.060219    1.032137   -0.317022
      4          6           0       -1.191587    0.433646    0.330090
      5          8           0       -1.517102   -0.845992   -0.188245
      6          1           0        1.538369    0.495514    1.186483
      7          1           0        2.250152    0.738428   -0.391762
      8          1           0       -0.046154    0.972799   -1.405031
      9          1           0        0.150424    2.093170   -0.055197
     10          1           0       -2.053162    1.074324    0.128339
     11          1           0       -1.062041    0.400650    1.424746
     12          1           0       -0.716803   -1.381142   -0.113616
 ---------------------------------------------------------------------

 SCF Done:  E(UHF) =  -267.441647359     A.U. after   19 cycles
 E2 =    -0.9361401529D+00 EUMP2 =    -0.26837778751192D+03
 E2(CBS)=      -1.032409 CBS-Int=       0.030681 OIii=       8.280467

 The electronic state is 2-A.
 Alpha  occ. eigenvalues --  -20.63799 -20.54698 -11.29632 -11.27739 -11.23682
 Alpha  occ. eigenvalues --   -1.42911  -1.35259  -1.05211  -0.91671  -0.82637
 Alpha  occ. eigenvalues --   -0.72918  -0.69261  -0.66911  -0.63104  -0.60482
 Alpha  occ. eigenvalues --   -0.58322  -0.56226  -0.51546  -0.49820  -0.45754
 Alpha  occ. eigenvalues --   -0.43879
 Alpha virt. eigenvalues --    0.03741   0.05388   0.05589   0.06461   0.08262
 Alpha virt. eigenvalues --    0.08714   0.09509   0.12105   0.13376   0.15209
 Alpha virt. eigenvalues --    0.16345   0.16854   0.17787   0.18146   0.19006

  Beta  occ. eigenvalues --  -20.59774 -20.54707 -11.29917 -11.27745 -11.23645
  Beta  occ. eigenvalues --   -1.35522  -1.29783  -1.04137  -0.90179  -0.81360
  Beta  occ. eigenvalues --   -0.69911  -0.65705  -0.61803  -0.60998  -0.59212
  Beta  occ. eigenvalues --   -0.56121  -0.51906  -0.50715  -0.44333  -0.43562
  Beta virt. eigenvalues --    0.03695   0.05393   0.05584   0.06476   0.06936
  Beta virt. eigenvalues --    0.08561   0.08893   0.09545   0.12208   0.14505
  Beta virt. eigenvalues --    0.15247   0.16510   0.16904   0.17852   0.18510

 Mulliken charges and spin densities:
               1          2
     1  O   -0.160316   0.989291
     2  C   -0.058108  -0.117034
     3  C   -0.014421   0.030602
     4  C   -0.083131  -0.016026
     5  O   -0.362262   0.003663
     6  H    0.089806   0.091142
     7  H    0.073875   0.028006
     8  H    0.094471  -0.000979
     9  H    0.025092  -0.003997
    10  H    0.062505   0.000555
    11  H    0.071061   0.001438
    12  H    0.261428  -0.006662
 Sum of Mulliken charges =   0.00000   1.00000

 Dipole moment (field-independent basis, Debye):
    X=              1.7645    Y=              2.5600    Z=              0.7482  Tot=              3.1980
 Quadrupole moment (field-independent basis, Debye-Ang):
   XX=            -35.0375   YY=            -31.6243   ZZ=            -30.2127
   XY=             -0.5845   XZ=             -0.7604   YZ=             -0.1818

 Normal termination of Gaussian 09 at Sat Aug  1 13:25:56 2020.
